                         Program Version 6.0.0  -   RELEASE  -
|  1> ! PBE0 def2-TZVP TightSCF
|  2> ! CPCM(toluene)
|  3> ! PAL16
|  4>
|  5> %maxcore 5000
|  6>
|  7> %tddft
|  8>   nroots 10
|  9>   DOSOC TRUE
| 10> end
| 11>
| 12> *xyzfile 0 1 BSF-2_opt_pbe0_tzvp_gcp_d4_cpcm-toluene.xyz
| 13>
| 14>                          ****END OF INPUT****

CARTESIAN COORDINATES (ANGSTROEM)
---------------------------------
  C     -2.942433   -4.339322   -0.124591
  C     -2.377932   -5.618507   -0.187196
  C     -2.140195   -3.195220   -0.092267
  C     -0.774602   -3.361743   -0.123689
  C     -0.204026   -4.637281   -0.185599
  C     -1.004101   -5.772306   -0.217939
  C      0.296937   -2.292683   -0.096432
  C      1.556525   -3.130483   -0.151239
  C      1.246186   -4.493347   -0.203309
  C      2.251907   -5.449709   -0.259873
  H      2.017814   -6.507505   -0.300437
  C      3.569200   -5.029377   -0.264100
  C      3.872989   -3.664112   -0.212211
  C      2.863293   -2.699563   -0.154929
  H      3.115294   -1.645759   -0.115347
  H     -2.592877   -2.211084   -0.043683
  H     -0.568314   -6.763837   -0.265819
  C      0.051543   -0.463834   -3.454930
  C     -0.071722    0.835319   -2.963120
  C      0.190273   -1.540467   -2.581918
  C      0.182010   -1.290397   -1.227933
  C      0.062782    0.007982   -0.725634
  C     -0.056008    1.079977   -1.599216
  C      0.213961   -1.389862    1.118334
  C      0.081880   -0.053857    0.731548
  C     -0.015753    0.939629    1.695978
  H     -0.124080    1.981749    1.415508
  C     -0.000033    0.579938    3.034188
  C      0.252902   -1.754175    2.445444
  H      0.375328   -2.788879    2.747075
  N      0.022279   -0.695842   -4.841621
  H      0.305260   -2.545700   -2.972790
  H     -0.154855    2.094539   -1.228736
  C     -0.843370   -1.560970   -5.492086
  C     -1.867087   -2.342075   -4.968778
  H     -2.087671   -2.351495   -3.907824
  C     -2.607165   -3.106311   -5.855414
  H     -3.412389   -3.724715   -5.473486
  C     -2.342109   -3.094538   -7.228464
  H     -2.941178   -3.707026   -7.893086
  C     -1.330027   -2.304301   -7.744453
  H     -1.132272   -2.287006   -8.811113
  C     -0.572094   -1.526178   -6.874457
  C      0.133356   -0.756361    3.410133
  C     -4.361154   -4.202225   -0.092917
  C      5.237585   -3.250894   -0.218240
  C      0.848611   -0.105007   -5.783643
  C      0.511338   -0.596380   -7.060773
  C      1.220033   -0.159026   -8.175767
  H      0.971104   -0.528933   -9.164892
  C      2.249313    0.749414   -8.001935
  H      2.810386    1.100710   -8.860696
  C      2.580100    1.215637   -6.725724
  H      3.397376    1.919655   -6.611421
  C      1.889955    0.796723   -5.600502
  H      2.160483    1.156580   -4.614928
  N      0.132203   -1.107378    4.771831
  C     -0.718525   -2.029258    5.361323
  C     -1.748919   -2.767628    4.791299
  H     -1.988681   -2.687393    3.737523
  C     -2.470313   -3.608606    5.622141
  H     -3.279997   -4.196211    5.202841
  C     -2.180653   -3.712806    6.986282
  H     -2.765462   -4.382776    7.606652
  C     -1.162283   -2.964427    7.550065
  H     -0.945698   -3.037100    8.610714
  C     -0.422640   -2.111041    6.736650
  C      0.973216   -0.594892    5.746185
  C      0.660601   -1.194790    6.982570
  C      1.387133   -0.849374    8.118248
  H      1.157239   -1.303004    9.076653
  C      2.409395    0.076316    8.004308
  H      2.983932    0.356923    8.880006
  C      2.715873    0.650623    6.766679
  H      3.528271    1.366156    6.698338
  C      2.007744    0.324501    5.622039
  H      2.259673    0.767804    4.666003
  H     -0.195584    1.653351   -3.663452
  H     -0.107740    1.335084    3.804286
  H     -3.028970   -6.484248   -0.210682
  N     -5.507803   -4.091821   -0.067779
  N      6.340179   -2.916549   -0.223292
  H      4.376711   -5.750365   -0.307813

 Total Charge           Charge          ....    0
 Multiplicity           Mult            ....    1
 Number of Electrons    NEL             ....  362
 Basis Dimension        Dim             .... 1873

ORBITAL ENERGIES
----------------

  NO   OCC          E(Eh)            E(eV)
   0   2.0000     -14.443228      -393.0202
   1   2.0000     -14.443159      -393.0183
   2   2.0000     -14.393980      -391.6801
   3   2.0000     -14.392815      -391.6484
   4   2.0000     -10.288543      -279.9655
   5   2.0000     -10.287923      -279.9486
   6   2.0000     -10.287888      -279.9477
   7   2.0000     -10.287623      -279.9405
   8   2.0000     -10.283825      -279.8371
   9   2.0000     -10.275842      -279.6199
  10   2.0000     -10.274679      -279.5882
  11   2.0000     -10.269896      -279.4581
  12   2.0000     -10.269854      -279.4569
  13   2.0000     -10.269806      -279.4556
  14   2.0000     -10.269764      -279.4545
  15   2.0000     -10.269351      -279.4432
  16   2.0000     -10.268757      -279.4271
  17   2.0000     -10.268237      -279.4129
  18   2.0000     -10.267734      -279.3993
  19   2.0000     -10.265600      -279.3412
  20   2.0000     -10.264683      -279.3162
  21   2.0000     -10.264313      -279.3062
  22   2.0000     -10.263494      -279.2839
  23   2.0000     -10.259151      -279.1657
  24   2.0000     -10.258700      -279.1534
  25   2.0000     -10.258658      -279.1523
  26   2.0000     -10.258539      -279.1490
  27   2.0000     -10.254249      -279.0323
  28   2.0000     -10.253869      -279.0220
  29   2.0000     -10.248211      -278.8680
  30   2.0000     -10.248148      -278.8663
  31   2.0000     -10.247979      -278.8617
  32   2.0000     -10.247943      -278.8607
  33   2.0000     -10.246267      -278.8151
  34   2.0000     -10.246245      -278.8145
  35   2.0000     -10.234025      -278.4820
  36   2.0000     -10.233942      -278.4797
  37   2.0000     -10.233592      -278.4702
  38   2.0000     -10.233507      -278.4679
  39   2.0000     -10.231106      -278.4025
  40   2.0000     -10.231087      -278.4020
  41   2.0000     -10.230876      -278.3963
  42   2.0000     -10.230870      -278.3961
  43   2.0000     -10.230839      -278.3953
  44   2.0000     -10.230828      -278.3950
  45   2.0000     -10.230750      -278.3929
  46   2.0000     -10.230693      -278.3913
  47   2.0000     -10.229297      -278.3533
  48   2.0000     -10.229266      -278.3525
  49   2.0000     -10.229198      -278.3506
  50   2.0000     -10.229152      -278.3494
  51   2.0000     -10.223040      -278.1831
  52   2.0000     -10.223010      -278.1823
  53   2.0000     -10.222900      -278.1792
  54   2.0000     -10.222856      -278.1780
  55   2.0000      -1.037791       -28.2397
  56   2.0000      -1.037711       -28.2375
  57   2.0000      -0.971187       -26.4273
  58   2.0000      -0.952629       -25.9223
  59   2.0000      -0.950705       -25.8700
  60   2.0000      -0.935593       -25.4588
  61   2.0000      -0.915084       -24.9007
  62   2.0000      -0.911908       -24.8143
  63   2.0000      -0.895543       -24.3690
  64   2.0000      -0.883066       -24.0294
  65   2.0000      -0.883019       -24.0282
  66   2.0000      -0.877124       -23.8678
  67   2.0000      -0.873462       -23.7681
  68   2.0000      -0.849190       -23.1076
  69   2.0000      -0.833011       -22.6674
  70   2.0000      -0.819056       -22.2876
  71   2.0000      -0.807903       -21.9842
  72   2.0000      -0.807567       -21.9750
  73   2.0000      -0.800335       -21.7782
  74   2.0000      -0.797987       -21.7143
  75   2.0000      -0.796485       -21.6735
  76   2.0000      -0.783464       -21.3191
  77   2.0000      -0.782140       -21.2831
  78   2.0000      -0.780052       -21.2263
  79   2.0000      -0.758964       -20.6525
  80   2.0000      -0.748284       -20.3618
  81   2.0000      -0.747925       -20.3521
  82   2.0000      -0.739848       -20.1323
  83   2.0000      -0.734306       -19.9815
  84   2.0000      -0.719423       -19.5765
  85   2.0000      -0.694488       -18.8980
  86   2.0000      -0.680668       -18.5219
  87   2.0000      -0.669971       -18.2308
  88   2.0000      -0.655735       -17.8435
  89   2.0000      -0.655485       -17.8367
  90   2.0000      -0.646137       -17.5823
  91   2.0000      -0.640201       -17.4208
  92   2.0000      -0.637942       -17.3593
  93   2.0000      -0.635995       -17.3063
  94   2.0000      -0.630586       -17.1591
  95   2.0000      -0.623977       -16.9793
  96   2.0000      -0.606146       -16.4941
  97   2.0000      -0.601235       -16.3604
  98   2.0000      -0.600142       -16.3307
  99   2.0000      -0.599250       -16.3064
 100   2.0000      -0.593299       -16.1445
 101   2.0000      -0.575584       -15.6624
 102   2.0000      -0.564126       -15.3507
 103   2.0000      -0.552102       -15.0235
 104   2.0000      -0.546313       -14.8659
 105   2.0000      -0.544370       -14.8131
 106   2.0000      -0.540267       -14.7014
 107   2.0000      -0.538335       -14.6488
 108   2.0000      -0.533854       -14.5269
 109   2.0000      -0.528107       -14.3705
 110   2.0000      -0.524560       -14.2740
 111   2.0000      -0.517442       -14.0803
 112   2.0000      -0.493670       -13.4334
 113   2.0000      -0.492884       -13.4121
 114   2.0000      -0.486263       -13.2319
 115   2.0000      -0.485622       -13.2145
 116   2.0000      -0.484327       -13.1792
 117   2.0000      -0.480578       -13.0772
 118   2.0000      -0.480283       -13.0692
 119   2.0000      -0.475769       -12.9463
 120   2.0000      -0.475679       -12.9439
 121   2.0000      -0.472028       -12.8445
 122   2.0000      -0.471375       -12.8268
 123   2.0000      -0.471089       -12.8190
 124   2.0000      -0.461475       -12.5574
 125   2.0000      -0.458817       -12.4850
 126   2.0000      -0.456583       -12.4242
 127   2.0000      -0.453953       -12.3527
 128   2.0000      -0.450351       -12.2547
 129   2.0000      -0.446833       -12.1590
 130   2.0000      -0.445421       -12.1205
 131   2.0000      -0.444973       -12.1083
 132   2.0000      -0.444327       -12.0908
 133   2.0000      -0.444069       -12.0837
 134   2.0000      -0.442281       -12.0351
 135   2.0000      -0.435378       -11.8472
 136   2.0000      -0.434474       -11.8226
 137   2.0000      -0.433795       -11.8042
 138   2.0000      -0.419030       -11.4024
 139   2.0000      -0.415257       -11.2997
 140   2.0000      -0.414527       -11.2799
 141   2.0000      -0.404704       -11.0126
 142   2.0000      -0.402049       -10.9403
 143   2.0000      -0.395851       -10.7717
 144   2.0000      -0.395183       -10.7535
 145   2.0000      -0.392879       -10.6908
 146   2.0000      -0.388654       -10.5758
 147   2.0000      -0.387870       -10.5545
 148   2.0000      -0.382522       -10.4090
 149   2.0000      -0.382384       -10.4052
 150   2.0000      -0.382215       -10.4006
 151   2.0000      -0.382132       -10.3984
 152   2.0000      -0.380252       -10.3472
 153   2.0000      -0.379082       -10.3154
 154   2.0000      -0.374890       -10.2013
 155   2.0000      -0.372079       -10.1248
 156   2.0000      -0.371925       -10.1206
 157   2.0000      -0.363115        -9.8809
 158   2.0000      -0.361729        -9.8431
 159   2.0000      -0.358261        -9.7488
 160   2.0000      -0.356910        -9.7120
 161   2.0000      -0.353550        -9.6206
 162   2.0000      -0.353181        -9.6106
 163   2.0000      -0.352549        -9.5933
 164   2.0000      -0.349153        -9.5009
 165   2.0000      -0.320195        -8.7130
 166   2.0000      -0.317953        -8.6519
 167   2.0000      -0.312008        -8.4902
 168   2.0000      -0.304936        -8.2977
 169   2.0000      -0.303720        -8.2646
 170   2.0000      -0.295711        -8.0467
 171   2.0000      -0.286700        -7.8015
 172   2.0000      -0.283949        -7.7267
 173   2.0000      -0.275729        -7.5030
 174   2.0000      -0.275590        -7.4992
 175   2.0000      -0.265269        -7.2183
 176   2.0000      -0.256081        -6.9683
 177   2.0000      -0.235849        -6.4178
 178   2.0000      -0.235801        -6.4165
 179   2.0000      -0.224173        -6.1000
 180   2.0000      -0.215262        -5.8576
 181   0.0000      -0.091286        -2.4840
 182   0.0000      -0.060128        -1.6362
 183   0.0000      -0.052341        -1.4243
 184   0.0000      -0.043997        -1.1972
 185   0.0000      -0.039646        -1.0788

MULLIKEN ATOMIC CHARGES
-----------------------
   0 C :    0.402505
   1 C :   -0.149593
   2 C :   -0.458429
   3 C :   -0.341961
   4 C :    0.199595
   5 C :   -0.234214
   6 C :    1.667730
   7 C :   -0.355603
   8 C :    0.178325
   9 C :   -0.232445
  10 H :    0.146942
  11 C :   -0.152588
  12 C :    0.385491
  13 C :   -0.383789
  14 H :    0.155176
  15 H :    0.156117
  16 H :    0.147345
  17 C :    0.248038
  18 C :   -0.234676
  19 C :   -0.489351
  20 C :   -0.313678
  21 C :    0.182237
  22 C :   -0.237183
  23 C :   -0.315875
  24 C :    0.183726
  25 C :   -0.236786
  26 H :    0.139085
  27 C :   -0.235187
  28 C :   -0.488741
  29 H :    0.164311
  30 N :    0.171319
  31 H :    0.163610
  32 H :    0.139253
  33 C :    0.115775
  34 C :   -0.271554
  35 H :    0.164018
  36 C :   -0.124731
  37 H :    0.135644
  38 C :   -0.148495
  39 H :    0.131519
  40 C :   -0.219972
  41 H :    0.133118
  42 C :    0.002411
  43 C :    0.247949
  44 C :   -0.315434
  45 C :   -0.315201
  46 C :    0.112527
  47 C :    0.002407
  48 C :   -0.223660
  49 H :    0.132872
  50 C :   -0.146524
  51 H :    0.131631
  52 C :   -0.115073
  53 H :    0.135719
  54 C :   -0.277273
  55 H :    0.149773
  56 N :    0.170255
  57 C :    0.116906
  58 C :   -0.271922
  59 H :    0.165439
  60 C :   -0.125219
  61 H :    0.135706
  62 C :   -0.149207
  63 H :    0.131413
  64 C :   -0.219407
  65 H :    0.133142
  66 C :    0.000738
  67 C :    0.112873
  68 C :    0.003121
  69 C :   -0.223568
  70 H :    0.132826
  71 C :   -0.146386
  72 H :    0.131683
  73 C :   -0.114746
  74 H :    0.135743
  75 C :   -0.277900
  76 H :    0.149870
  77 H :    0.162924
  78 H :    0.163530
  79 H :    0.159998
  80 N :   -0.022539
  81 N :   -0.023647
  82 H :    0.160220
Sum of atomic charges:   -0.0000000

LOEWDIN ATOMIC CHARGES
----------------------
   0 C :   -0.143323
   1 C :   -0.068290
   2 C :   -0.028489
   3 C :   -0.022838
   4 C :   -0.048482
   5 C :   -0.078744
   6 C :   -0.068483
   7 C :   -0.022312
   8 C :   -0.049021
   9 C :   -0.079086
  10 H :    0.160489
  11 C :   -0.067714
  12 C :   -0.141612
  13 C :   -0.025647
  14 H :    0.171837
  15 H :    0.172104
  16 H :    0.160650
  17 C :   -0.160288
  18 C :   -0.095523
  19 C :   -0.057138
  20 C :   -0.031746
  21 C :   -0.065009
  22 C :   -0.089825
  23 C :   -0.031924
  24 C :   -0.065018
  25 C :   -0.089772
  26 H :    0.157440
  27 C :   -0.095595
  28 C :   -0.057248
  29 H :    0.169231
  30 N :    0.331583
  31 H :    0.169178
  32 H :    0.157454
  33 C :   -0.123288
  34 C :   -0.129094
  35 H :    0.154907
  36 C :   -0.147629
  37 H :    0.151096
  38 C :   -0.161882
  39 H :    0.148808
  40 C :   -0.105995
  41 H :    0.153229
  42 C :   -0.085928
  43 C :   -0.160235
  44 C :   -0.147919
  45 C :   -0.146865
  46 C :   -0.123813
  47 C :   -0.085865
  48 C :   -0.106072
  49 H :    0.153192
  50 C :   -0.161797
  51 H :    0.148810
  52 C :   -0.147548
  53 H :    0.150837
  54 C :   -0.129033
  55 H :    0.154994
  56 N :    0.331649
  57 C :   -0.123260
  58 C :   -0.129161
  59 H :    0.154949
  60 C :   -0.147554
  61 H :    0.151126
  62 C :   -0.161827
  63 H :    0.148826
  64 C :   -0.105976
  65 H :    0.153222
  66 C :   -0.085875
  67 C :   -0.123837
  68 C :   -0.085818
  69 C :   -0.106110
  70 H :    0.153199
  71 C :   -0.161766
  72 H :    0.148827
  73 C :   -0.147551
  74 H :    0.150836
  75 C :   -0.129025
  76 H :    0.155017
  77 H :    0.163305
  78 H :    0.163314
  79 H :    0.165494
  80 N :    0.041383
  81 N :    0.041321
  82 H :    0.165542

  Mayer bond orders larger than 0.100000
B(  0-C ,  1-C ) :   1.2936 B(  0-C ,  2-C ) :   1.2571 B(  0-C , 44-C ) :   0.9386
B(  1-C ,  5-C ) :   1.4349 B(  1-C , 79-H ) :   0.9761 B(  2-C ,  3-C ) :   1.3711
B(  2-C ,  6-C ) :  -0.1243 B(  2-C , 15-H ) :   1.0344 B(  3-C ,  4-C ) :   1.2635
B(  3-C ,  6-C ) :   0.2500 B(  3-C ,  7-C ) :   0.2251 B(  3-C , 20-C ) :   0.3584
B(  3-C , 23-C ) :   0.3592 B(  4-C ,  5-C ) :   1.3410 B(  4-C ,  8-C ) :   0.9833
B(  5-C , 16-H ) :   0.9908 B(  6-C ,  7-C ) :   0.2977 B(  6-C , 20-C ) :   0.2073
B(  6-C , 23-C ) :   0.2072 B(  7-C ,  8-C ) :   1.2697 B(  7-C , 13-C ) :   1.3951
B(  7-C , 20-C ) :   0.3580 B(  7-C , 23-C ) :   0.3590 B(  8-C ,  9-C ) :   1.3451
B(  9-C , 10-H ) :   0.9887 B(  9-C , 11-C ) :   1.4345 B( 11-C , 12-C ) :   1.2907
B( 11-C , 82-H ) :   0.9756 B( 12-C , 13-C ) :   1.2811 B( 12-C , 45-C ) :   0.9379
B( 13-C , 14-H ) :   1.0223 B( 17-C , 18-C ) :   1.3447 B( 17-C , 19-C ) :   1.2812
B( 17-C , 30-N ) :   0.9387 B( 18-C , 22-C ) :   1.4073 B( 18-C , 77-H ) :   0.9929
B( 19-C , 20-C ) :   1.2927 B( 19-C , 31-H ) :   1.0496 B( 20-C , 21-C ) :   1.2635
B( 20-C , 23-C ) :   0.2148 B( 21-C , 22-C ) :   1.3423 B( 21-C , 24-C ) :   0.9691
B( 22-C , 32-H ) :   1.0018 B( 23-C , 24-C ) :   1.2611 B( 23-C , 28-C ) :   1.2930
B( 24-C , 25-C ) :   1.3428 B( 25-C , 26-H ) :   1.0017 B( 25-C , 27-C ) :   1.4080
B( 27-C , 43-C ) :   1.3445 B( 27-C , 78-H ) :   0.9924 B( 28-C , 29-H ) :   1.0488
B( 28-C , 43-C ) :   1.2814 B( 30-N , 33-C ) :   1.1160 B( 30-N , 46-C ) :   1.1207
B( 33-C , 34-C ) :   1.3491 B( 33-C , 42-C ) :   1.2823 B( 34-C , 35-H ) :   0.9566
B( 34-C , 36-C ) :   1.4439 B( 36-C , 37-H ) :   0.9720 B( 36-C , 38-C ) :   1.3485
B( 38-C , 39-H ) :   0.9776 B( 38-C , 40-C ) :   1.4694 B( 40-C , 41-H ) :   0.9859
B( 40-C , 42-C ) :   1.2927 B( 42-C , 47-C ) :   1.0398 B( 43-C , 56-N ) :   0.9402
B( 44-C , 80-N ) :   3.0608 B( 45-C , 81-N ) :   3.0616 B( 46-C , 47-C ) :   1.2925
B( 46-C , 54-C ) :   1.3338 B( 47-C , 48-C ) :   1.2993 B( 48-C , 49-H ) :   0.9852
B( 48-C , 50-C ) :   1.4738 B( 50-C , 51-H ) :   0.9758 B( 50-C , 52-C ) :   1.3558
B( 52-C , 53-H ) :   0.9679 B( 52-C , 54-C ) :   1.4440 B( 54-C , 55-H ) :   0.9667
B( 56-N , 57-C ) :   1.1161 B( 56-N , 67-C ) :   1.1210 B( 57-C , 58-C ) :   1.3498
B( 57-C , 66-C ) :   1.2812 B( 58-C , 59-H ) :   0.9553 B( 58-C , 60-C ) :   1.4454
B( 60-C , 61-H ) :   0.9721 B( 60-C , 62-C ) :   1.3481 B( 62-C , 63-H ) :   0.9781
B( 62-C , 64-C ) :   1.4691 B( 64-C , 65-H ) :   0.9860 B( 64-C , 66-C ) :   1.2919
B( 66-C , 68-C ) :   1.0394 B( 67-C , 68-C ) :   1.2927 B( 67-C , 75-C ) :   1.3332
B( 68-C , 69-C ) :   1.2985 B( 69-C , 70-H ) :   0.9853 B( 69-C , 71-C ) :   1.4739
B( 71-C , 72-H ) :   0.9758 B( 71-C , 73-C ) :   1.3560 B( 73-C , 74-H ) :   0.9679
B( 73-C , 75-C ) :   1.4441 B( 75-C , 76-H ) :   0.9667

--------------------------------------------------------------------------------------------------------
      SOC CORRECTED ABSORPTION SPECTRUM VIA TRANSITION ELECTRIC DIPOLE MOMENTS
--------------------------------------------------------------------------------------------------------
      Transition         Energy     Energy  Wavelength fosc(D2)      D2       |DX|      |DY|      |DZ|
                          (eV)      (cm-1)    (nm)                 (au**2)    (au)      (au)      (au)
--------------------------------------------------------------------------------------------------------
  0-1.0A  ->  1-3.0A    2.816007   22712.6   440.3   0.000000001   0.00000   0.00012   0.00004   0.00000
  0-1.0A  ->  2-3.0A    2.816007   22712.6   440.3   0.000000001   0.00000   0.00000   0.00000   0.00009
  0-1.0A  ->  3-3.0A    2.816007   22712.6   440.3   0.000000001   0.00000   0.00000   0.00000   0.00011
  0-1.0A  ->  4-1.0A    2.835502   22869.9   437.3   0.000986588   0.01420   0.09852   0.06691   0.00424
  0-1.0A  ->  5-3.0A    2.951034   23801.7   420.1   0.000000000   0.00000   0.00006   0.00001   0.00001
  0-1.0A  ->  6-3.0A    2.951034   23801.7   420.1   0.000000000   0.00000   0.00000   0.00000   0.00005
  0-1.0A  ->  7-3.0A    2.951034   23801.7   420.1   0.000000000   0.00000   0.00000   0.00000   0.00001
  0-1.0A  ->  8-3.0A    2.972469   23974.6   417.1   0.000000000   0.00000   0.00001   0.00000   0.00000
  0-1.0A  ->  9-3.0A    2.972469   23974.6   417.1   0.000000005   0.00000   0.00001   0.00001   0.00027
  0-1.0A  -> 10-3.0A    2.972469   23974.6   417.1   0.000000000   0.00000   0.00000   0.00000   0.00000
  0-1.0A  -> 11-3.0A    3.120823   25171.1   397.3   0.000000001   0.00000   0.00009   0.00006   0.00001
  0-1.0A  -> 12-3.0A    3.120823   25171.1   397.3   0.000000001   0.00000   0.00000   0.00000   0.00009
  0-1.0A  -> 13-3.0A    3.120823   25171.1   397.3   0.000000000   0.00000   0.00000   0.00004   0.00000
  0-1.0A  -> 14-1.0A    3.121040   25172.9   397.3   0.000338199   0.00442   0.00149   0.00419   0.06636
  0-1.0A  -> 15-3.0A    3.398166   27408.1   364.9   0.000000019   0.00000   0.00001   0.00002   0.00048
  0-1.0A  -> 16-3.0A    3.398166   27408.1   364.9   0.000000011   0.00000   0.00000   0.00002   0.00036
  0-1.0A  -> 17-3.0A    3.398166   27408.1   364.9   0.000000000   0.00000   0.00000   0.00001   0.00000
  0-1.0A  -> 18-3.0A    3.406228   27473.1   364.0   0.000000072   0.00000   0.00001   0.00004   0.00092
  0-1.0A  -> 19-3.0A    3.406228   27473.1   364.0   0.000000000   0.00000   0.00001   0.00001   0.00000
  0-1.0A  -> 20-3.0A    3.406228   27473.1   364.0   0.000000000   0.00000   0.00000   0.00000   0.00000
  0-1.0A  -> 21-3.0A    3.438006   27729.4   360.6   0.000000028   0.00000   0.00000   0.00002   0.00058
  0-1.0A  -> 22-3.0A    3.438006   27729.4   360.6   0.000000000   0.00000   0.00000   0.00000   0.00005
  0-1.0A  -> 23-3.0A    3.438006   27729.4   360.6   0.000000000   0.00000   0.00000   0.00000   0.00001
  0-1.0A  -> 24-3.0A    3.438517   27733.5   360.6   0.000000030   0.00000   0.00002   0.00003   0.00059
  0-1.0A  -> 25-3.0A    3.438517   27733.5   360.6   0.000000000   0.00000   0.00000   0.00000   0.00005
  0-1.0A  -> 26-3.0A    3.438517   27733.5   360.6   0.000000000   0.00000   0.00000   0.00000   0.00000
  0-1.0A  -> 27-1.0A    3.477203   28045.5   356.6   0.000027504   0.00032   0.01671   0.00281   0.00599
  0-1.0A  -> 28-3.0A    3.477597   28048.7   356.5   0.000000003   0.00000   0.00016   0.00002   0.00011
  0-1.0A  -> 29-3.0A    3.477597   28048.7   356.5   0.000000000   0.00000   0.00000   0.00000   0.00003
  0-1.0A  -> 30-3.0A    3.477597   28048.7   356.5   0.000000000   0.00000   0.00002   0.00001   0.00001
  0-1.0A  -> 31-1.0A    3.477899   28051.1   356.5   0.000031020   0.00036   0.01819   0.00243   0.00522
  0-1.0A  -> 32-3.0A    3.478242   28053.9   356.5   0.000000003   0.00000   0.00014   0.00003   0.00012
  0-1.0A  -> 33-3.0A    3.478242   28053.9   356.5   0.000000000   0.00000   0.00000   0.00000   0.00002
  0-1.0A  -> 34-3.0A    3.478242   28053.9   356.5   0.000000000   0.00000   0.00003   0.00001   0.00002
  0-1.0A  -> 35-1.0A    3.519674   28388.1   352.3   0.845631280   9.80665   0.03566   0.13339   3.12851
  0-1.0A  -> 36-1.0A    3.789062   30560.8   327.2   0.000579926   0.00625   0.00796   0.07828   0.00743
  0-1.0A  -> 37-1.0A    3.831428   30902.6   323.6   0.131434128   1.40020   1.18069   0.07757   0.01202
  0-1.0A  -> 38-1.0A    3.854531   31088.9   321.7   0.029925534   0.31689   0.54544   0.13882   0.01069
  0-1.0A  -> 39-1.0A    3.916810   31591.2   316.5   0.003673901   0.03829   0.00901   0.00579   0.19537
  0-1.0A  -> 40-1.0A    4.048228   32651.2   306.3   0.148371372   1.49598   0.00642   0.06059   1.22159

FINAL SINGLE POINT ENERGY     -2177.477978486460

DIPOLE MOMENT
-------------

Method             : SCF
Type of density    : Electron Density
Multiplicity       :   1
Irrep              :   0
Energy             : -2177.5814648549453523 Eh
Relativity type    :
Basis              : AO
                                X                 Y                 Z
Electronic contribution:      1.088476624      -4.091773094      -0.180004803
Nuclear contribution   :     -1.011865713       3.742925703       0.167008391
                        -----------------------------------------
Total Dipole Moment    :      0.076610911      -0.348847390      -0.012996412
                        -----------------------------------------
Magnitude (a.u.)       :      0.357397034
Magnitude (Debye)      :      0.908431067

Rotational constants in cm-1:             0.002835             0.000983             0.000890
Rotational constants in MHz :            84.994320            29.470090            26.677394

                             ****ORCA TERMINATED NORMALLY****
TOTAL RUN TIME: 0 days 0 hours 21 minutes 46 seconds 713 msec
